<?xml version="1.0" encoding="UTF-8"?>

<!-- generated on 2024-10-14 14:16:13 by Eclipse SUMO sumo Version 1.20.0
<configuration xmlns:xsi="http://www.w3.org/2001/XMLSchema-instance" xsi:noNamespaceSchemaLocation="http://sumo.dlr.de/xsd/sumoConfiguration.xsd">

    <input>
        <net-file value="/Users/mac/Desktop/DriveArena/TrafficManager/networkFiles/2024-10-14-14-16-03/osm.net.xml.gz"/>
        <route-files value="/Users/mac/Desktop/DriveArena/TrafficManager/networkFiles/2024-10-14-14-16-03/trips.trips.xml"/>
        <additional-files value="/Users/mac/Desktop/DriveArena/TrafficManager/networkFiles/2024-10-14-14-16-03/osm_stops.add.xml"/>
    </input>

    <output>
        <vehroute-output value="/Users/mac/Desktop/DriveArena/TrafficManager/networkFiles/2024-10-14-14-16-03/vehroutes.xml"/>
        <stop-output value="/Users/mac/Desktop/DriveArena/TrafficManager/networkFiles/2024-10-14-14-16-03/stopinfos.xml"/>
    </output>

    <time>
        <begin value="0.0"/>
    </time>

    <processing>
        <ignore-route-errors value="true"/>
    </processing>

    <routing>
        <device.rerouting.adaptation-interval value="0"/>
    </routing>

    <report>
        <aggregate-warnings value="5"/>
        <error-log value="/Users/mac/Desktop/DriveArena/TrafficManager/networkFiles/2024-10-14-14-16-03/trips.trips.xml.errorlog"/>
        <no-step-log value="true"/>
    </report>

</configuration>
-->

<routes xmlns:xsi="http://www.w3.org/2001/XMLSchema-instance" xsi:noNamespaceSchemaLocation="http://sumo.dlr.de/xsd/routes_file.xsd">
</routes>
